# vtk DataFile Version 3.1
../dataFiles/drall.geo.bin
ASCII
DATASET UNSTRUCTURED_GRID
POINTS 53524 DOUBLE
0 0 0
0 1 0
-1 0 0
-1 1 0
0 0 1
0 1 1
-1 0 1
-1 1 1
0 2 0
-1 2 0
0 2 1
-1 2 1
0 3 0
-1 3 0
0 3 1
-1 3 1
0 4 0
-1 4 0
0 4 1
-1 4 1
0 5 0
-1 5 0
0 5 1
-1 5 1
0 6 0
-1 6 0
0 6 1
-1 6 1
-2 0 0
-2 1 0
-2 0 1
-2 1 1
-2 2 0
-2 2 1
-2 3 0
-2 3 1
-2 4 0
-2 4 1
-2 5 0
-2 5 1
-2 6 0
-2 6 1
-3 0 0
-3 1 0
-3 0 1
-3 1 1
-3 2 0
-3 2 1
-3 3 0
-3 3 1
-3 4 0
-3 4 1
-3 5 0
-3 5 1
-3 6 0
-3 6 1
-4 0 0
-4 1 0
-4 0 1
-4 1 1
-4 2 0
-4 2 1
-4 3 0
-4 3 1
-4 4 0
-4 4 1
-4 5 0
-4 5 1
-4 6 0
-4 6 1
-5 0 0
-5 1 0
-5 0 1
-5 1 1
-5 2 0
-5 2 1
-5 3 0
-5 3 1
-5 4 0
-5 4 1
-5 5 0
-5 5 1
-5 6 0
-5 6 1
-6 0 0
-6 1 0
-6 0 1
-6 1 1
-6 2 0
-6 2 1
-6 3 0
-6 3 1
-6 4 0
-6 4 1
-6 5 0
-6 5 1
-6 6 0
-6 6 1
-7 0 0
-7 1 0
-7 0 1
-7 1 1
-7 2 0
-7 2 1
-7 3 0
-7 3 1
-7 4 0
-7 4 1
-7 5 0
-7 5 1
-7 6 0
-7 6 1
-8 0 0
-8 1 0
-8 0 1
-8 1 1
-8 2 0
-8 2 1
-8 3 0
-8 3 1
-8 4 0
-8 4 1
-8 5 0
-8 5 1
-8 6 0
-8 6 1
-9 0 0
-9 1 0
-9 0 1
-9 1 1
-9 2 0
-9 2 1
-9 3 0
-9 3 1
-9 4 0
-9 4 1
-9 5 0
-9 5 1
-9 6 0
-9 6 1
-10 0 0
-10 1 0
-10 0 1
-10 1 1
-10 2 0
-10 2 1
-10 3 0
-10 3 1
-10 4 0
-10 4 1
-10 5 0
-10 5 1
-10 6 0
-10 6 1
-11 0 0
-11 1 0
-11 0 1
-11 1 1
-11 2 0
-11 2 1
-11 3 0
-11 3 1
-11 4 0
-11 4 1
-11 5 0
-11 5 1
-11 6 0
-11 6 1
-12 0 0
-12 1 0
-12 0 1
-12 1 1
-12 2 0
-12 2 1
-12 3 0
-12 3 1
-12 4 0
-12 4 1
-12 5 0
-12 5 1
-12 6 0
-12 6 1
-13 0 0
-13 1 0
-13 0 1
-13 1 1
-13 2 0
-13 2 1
-13 3 0
-13 3 1
-13 4 0
-13 4 1
-13 5 0
-13 5 1
-13 6 0
-13 6 1
-14 0 0
-14 1 0
-14 0 1
-14 1 1
-14 2 0
-14 2 1
-14 3 0
-14 3 1
-14 4 0
-14 4 1
-14 5 0
-14 5 1
-14 6 0
-14 6 1
-15 0 0
-15 1 0
-15 0 1
-15 1 1
-15 2 0
-15 2 1
-15 3 0
-15 3 1
-15 4 0
-15 4 1
-15 5 0
-15 5 1
-15 6 0
-15 6 1
-16 0 0
-16 1 0
-16 0 1
-16 1 1
-16 2 0
-16 2 1
-16 3 0
-16 3 1
-16 4 0
-16 4 1
-16 5 0
-16 5 1
-16 6 0
-16 6 1
-17 0 0
-17 1 0
-17 0 1
-17 1 1
-17 2 0
-17 2 1
-17 3 0
-17 3 1
-17 4 0
-17 4 1
-17 5 0
-17 5 1
-17 6 0
-17 6 1
-18 0 0
-18 1 0
-18 0 1
-18 1 1
-18 2 0
-18 2 1
-18 3 0
-18 3 1
-18 4 0
-18 4 1
-18 5 0
-18 5 1
-18 6 0
-18 6 1
-19 0 0
-19 1 0
-19 0 1
-19 1 1
-19 2 0
-19 2 1
-19 3 0
-19 3 1
-19 4 0
-19 4 1
-19 5 0
-19 5 1
-19 6 0
-19 6 1
-20 0 0
-20 1 0
-20 0 1
-20 1 1
-20 2 0
-20 2 1
-20 3 0
-20 3 1
-20 4 0
-20 4 1
-20 5 0
-20 5 1
-20 6 0
-20 6 1
-21 0 0
-21 1 0
-21 0 1
-21 1 1
-21 2 0
-21 2 1
-21 3 0
-21 3 1
-21 4 0
-21 4 1
-21 5 0
-21 5 1
-21 6 0
-21 6 1
-20 7 0
-21 7 0
-20 7 1
-21 7 1
-20 8 0
-21 8 0
-20 8 1
-21 8 1
-20 9 0
-21 9 0
-20 9 1
-21 9 1
-20 10 0
-21 10 0
-20 10 1
-21 10 1
-20 11 0
-21 11 0
-20 11 1
-21 11 1
-20 12 0
-21 12 0
-20 12 1
-21 12 1
-22 0 0
-22 1 0
-22 0 1
-22 1 1
-22 2 0
-22 2 1
-22 3 0
-22 3 1
-22 4 0
-22 4 1
-22 5 0
-22 5 1
-22 6 0
-22 6 1
-22 7 0
-22 7 1
-22 8 0
-22 8 1
-22 9 0
-22 9 1
-22 10 0
-22 10 1
-22 11 0
-22 11 1
-22 12 0
-22 12 1
-23 0 0
-23 1 0
-23 0 1
-23 1 1
-23 2 0
-23 2 1
-23 3 0
-23 3 1
-23 4 0
-23 4 1
-23 5 0
-23 5 1
-23 6 0
-23 6 1
-23 7 0
-23 7 1
-23 8 0
-23 8 1
-23 9 0
-23 9 1
-23 10 0
-23 10 1
-23 11 0
-23 11 1
-23 12 0
-23 12 1
-24 0 0
-24 1 0
-24 0 1
-24 1 1
-24 2 0
-24 2 1
-24 3 0
-24 3 1
-24 4 0
-24 4 1
-24 5 0
-24 5 1
-24 6 0
-24 6 1
-24 7 0
-24 7 1
-24 8 0
-24 8 1
-24 9 0
-24 9 1
-24 10 0
-24 10 1
-24 11 0
-24 11 1
-24 12 0
-24 12 1
-25 0 0
-25 1 0
-25 0 1
-25 1 1
-25 2 0
-25 2 1
-25 3 0
-25 3 1
-25 4 0
-25 4 1
-25 5 0
-25 5 1
-25 6 0
-25 6 1
-25 7 0
-25 7 1
-25 8 0
-25 8 1
-25 9 0
-25 9 1
-25 10 0
-25 10 1
-25 11 0
-25 11 1
-25 12 0
-25 12 1
-26 0 0
-26 1 0
-26 0 1
-26 1 1
-26 2 0
-26 2 1
-26 3 0
-26 3 1
-26 4 0
-26 4 1
-26 5 0
-26 5 1
-26 6 0
-26 6 1
-26 7 0
-26 7 1
-26 8 0
-26 8 1
-26 9 0
-26 9 1
-26 10 0
-26 10 1
-26 11 0
-26 11 1
-26 12 0
-26 12 1
-27 6 0
-27 7 0
-27 6 1
-27 7 1
-27 8 0
-27 8 1
-27 9 0
-27 9 1
-27 10 0
-27 10 1
-27 11 0
-27 11 1
-27 12 0
-27 12 1
-28 6 0
-28 7 0
-28 6 1
-28 7 1
-28 8 0
-28 8 1
-28 9 0
-28 9 1
-28 10 0
-28 10 1
-28 11 0
-28 11 1
-28 12 0
-28 12 1
-29 6 0
-29 7 0
-29 6 1
-29 7 1
-29 8 0
-29 8 1
-29 9 0
-29 9 1
-29 10 0
-29 10 1
-29 11 0
-29 11 1
-29 12 0
-29 12 1
-30 6 0
-30 7 0
-30 6 1
-30 7 1
-30 8 0
-30 8 1
-30 9 0
-30 9 1
-30 10 0
-30 10 1
-30 11 0
-30 11 1
-30 12 0
-30 12 1
-31 6 0
-31 7 0
-31 6 1
-31 7 1
-31 8 0
-31 8 1
-31 9 0
-31 9 1
-31 10 0
-31 10 1
-31 11 0
-31 11 1
-31 12 0
-31 12 1
-32 6 0
-32 7 0
-32 6 1
-32 7 1
-32 8 0
-32 8 1
-32 9 0
-32 9 1
-32 10 0
-32 10 1
-32 11 0
-32 11 1
-32 12 0
-32 12 1
-33 6 0
-33 7 0
-33 6 1
-33 7 1
-33 8 0
-33 8 1
-33 9 0
-33 9 1
-33 10 0
-33 10 1
-33 11 0
-33 11 1
-33 12 0
-33 12 1
-34 6 0
-34 7 0
-34 6 1
-34 7 1
-34 8 0
-34 8 1
-34 9 0
-34 9 1
-34 10 0
-34 10 1
-34 11 0
-34 11 1
-34 12 0
-34 12 1
-35 6 0
-35 7 0
-35 6 1
-35 7 1
-35 8 0
-35 8 1
-35 9 0
-35 9 1
-35 10 0
-35 10 1
-35 11 0
-35 11 1
-35 12 0
-35 12 1
-36 6 0
-36 7 0
-36 6 1
-36 7 1
-36 8 0
-36 8 1
-36 9 0
-36 9 1
-36 10 0
-36 10 1
-36 11 0
-36 11 1
-36 12 0
-36 12 1
-37 6 0
-37 7 0
-37 6 1
-37 7 1
-37 8 0
-37 8 1
-37 9 0
-37 9 1
-37 10 0
-37 10 1
-37 11 0
-37 11 1
-37 12 0
-37 12 1
-38 6 0
-38 7 0
-38 6 1
-38 7 1
-38 8 0
-38 8 1
-38 9 0
-38 9 1
-38 10 0
-38 10 1
-38 11 0
-38 11 1
-38 12 0
-38 12 1
0 0 2
0 1 2
-1 0 2
-1 1 2
0 2 2
-1 2 2
0 3 2
-1 3 2
0 4 2
-1 4 2
0 5 2
-1 5 2
0 6 2
-1 6 2
-2 0 2
-2 1 2
-2 2 2
-2 3 2
-2 4 2
-2 5 2
-2 6 2
-3 0 2
-3 1 2
-3 2 2
-3 3 2
-3 4 2
-3 5 2
-3 6 2
-4 0 2
-4 1 2
-4 2 2
-4 3 2
-4 4 2
-4 5 2
-4 6 2
-5 0 2
-5 1 2
-5 2 2
-5 3 2
-5 4 2
-5 5 2
-5 6 2
-6 0 2
-6 1 2
-6 2 2
-6 3 2
-6 4 2
-6 5 2
-6 6 2
-7 0 2
-7 1 2
-7 2 2
-7 3 2
-7 4 2
-7 5 2
-7 6 2
-8 0 2
-8 1 2
-8 2 2
-8 3 2
-8 4 2
-8 5 2
-8 6 2
-9 0 2
-9 1 2
-9 2 2
-9 3 2
-9 4 2
-9 5 2
-9 6 2
-10 0 2
-10 1 2
-10 2 2
-10 3 2
-10 4 2
-10 5 2
-10 6 2
-11 0 2
-11 1 2
-11 2 2
-11 3 2
-11 4 2
-11 5 2
-11 6 2
-12 0 2
-12 1 2
-12 2 2
-12 3 2
-12 4 2
-12 5 2
-12 6 2
-13 0 2
-13 1 2
-13 2 2
-13 3 2
-13 4 2
-13 5 2
-13 6 2
-14 0 2
-14 1 2
-14 2 2
-14 3 2
-14 4 2
-14 5 2
-14 6 2
-15 0 2
-15 1 2
-15 2 2
-15 3 2
-15 4 2
-15 5 2
-15 6 2
-16 0 2
-16 1 2
-16 2 2
-16 3 2
-16 4 2
-16 5 2
-16 6 2
-17 0 2
-17 1 2
-17 2 2
-17 3 2
-17 4 2
-17 5 2
-17 6 2
-18 0 2
-18 1 2
-18 2 2
-18 3 2
-18 4 2
-18 5 2
-18 6 2
-19 0 2
-19 1 2
-19 2 2
-19 3 2
-19 4 2
-19 5 2
-19 6 2
-20 0 2
-20 1 2
-20 2 2
-20 3 2
-20 4 2
-20 5 2
-20 6 2
-21 0 2
-21 1 2
-21 2 2
-21 3 2
-21 4 2
-21 5 2
-21 6 2
-20 7 2
-21 7 2
-20 8 2
-21 8 2
-20 9 2
-21 9 2
-20 10 2
-21 10 2
-20 11 2
-21 11 2
-20 12 2
-21 12 2
-22 0 2
-22 1 2
-22 2 2
-22 3 2
-22 4 2
-22 5 2
-22 6 2
-22 7 2
-22 8 2
-22 9 2
-22 10 2
-22 11 2
-22 12 2
-23 0 2
-23 1 2
-23 2 2
-23 3 2
-23 4 2
-23 5 2
-23 6 2
-23 7 2
-23 8 2
-23 9 2
-23 10 2
-23 11 2
-23 12 2
-24 0 2
-24 1 2
-24 2 2
-24 3 2
-24 4 2
-24 5 2
-24 6 2
-24 7 2
-24 8 2
-24 9 2
-24 10 2
-24 11 2
-24 12 2
-25 0 2
-25 1 2
-25 2 2
-25 3 2
-25 4 2
-25 5 2
-25 6 2
-25 7 2
-25 8 2
-25 9 2
-25 10 2
-25 11 2
-25 12 2
-26 0 2
-26 1 2
-26 2 2
-26 3 2
-26 4 2
-26 5 2
-26 6 2
-26 7 2
-26 8 2
-26 9 2
-26 10 2
-26 11 2
-26 12 2
-27 6 2
-27 7 2
-27 8 2
-27 9 2
-27 10 2
-27 11 2
-27 12 2
-28 6 2
-28 7 2
-28 8 2
-28 9 2
-28 10 2
-28 11 2
-28 12 2
-29 6 2
-29 7 2
-29 8 2
-29 9 2
-29 10 2
-29 11 2
-29 12 2
-30 6 2
-30 7 2
-30 8 2
-30 9 2
-30 10 2
-30 11 2
-30 12 2
-31 6 2
-31 7 2
-31 8 2
-31 9 2
-31 10 2
-31 11 2
-31 12 2
-32 6 2
-32 7 2
-32 8 2
-32 9 2
-32 10 2
-32 11 2
-32 12 2
-33 6 2
-33 7 2
-33 8 2
-33 9 2
-33 10 2
-33 11 2
-33 12 2
-34 6 2
-34 7 2
-34 8 2
-34 9 2
-34 10 2
-34 11 2
-34 12 2
-35 6 2
-35 7 2
-35 8 2
-35 9 2
-35 10 2
-35 11 2
-35 12 2
-36 6 2
-36 7 2
-36 8 2
-36 9 2
-36 10 2
-36 11 2
-36 12 2
-37 6 2
-37 7 2
-37 8 2
-37 9 2
-37 10 2
-37 11 2
-37 12 2
-38 6 2
-38 7 2
-38 8 2
-38 9 2
-38 10 2
-38 11 2
-38 12 2
0 0 3
0 1 3
-1 0 3
-1 1 3
0 2 3
-1 2 3
0 3 3
-1 3 3
0 4 3
-1 4 3
0 5 3
-1 5 3
0 6 3
-1 6 3
-2 0 3
-2 1 3
-2 2 3
-2 3 3
-2 4 3
-2 5 3
-2 6 3
-3 0 3
-3 1 3
-3 2 3
-3 3 3
-3 4 3
-3 5 3
-3 6 3
-4 0 3
-4 1 3
-4 2 3
-4 3 3
-4 4 3
-4 5 3
-4 6 3
-5 0 3
-5 1 3
-5 2 3
-5 3 3
-5 4 3
-5 5 3
-5 6 3
-6 0 3
-6 1 3
-6 2 3
-6 3 3
-6 4 3
-6 5 3
-6 6 3
-7 0 3
-7 1 3
-7 2 3
-7 3 3
-7 4 3
-7 5 3
-7 6 3
-8 0 3
-8 1 3
-8 2 3
-8 3 3
-8 4 3
-8 5 3
-8 6 3
-9 0 3
-9 1 3
-9 2 3
-9 3 3
-9 4 3
-9 5 3
-9 6 3
-10 0 3
-10 1 3
-10 2 3
-10 3 3
-10 4 3
-10 5 3
-10 6 3
-11 0 3
-11 1 3
-11 2 3
-11 3 3
-11 4 3
-11 5 3
-11 6 3
-12 0 3
-12 1 3
-12 2 3
-12 3 3
-12 4 3
-12 5 3
-12 6 3
-13 0 3
-13 1 3
-13 2 3
-13 3 3
-13 4 3
-13 5 3
-13 6 3
-14 0 3
-14 1 3
-14 2 3
-14 3 3
-14 4 3
-14 5 3
-14 6 3
-15 0 3
-15 1 3
-15 2 3
-15 3 3
-15 4 3
-15 5 3
-15 6 3
-16 0 3
-16 1 3
-16 2 3
-16 3 3
-16 4 3
-16 5 3
-16 6 3
-17 0 3
-17 1 3
-17 2 3
-17 3 3
-17 4 3
-17 5 3
-17 6 3
-18 0 3
-18 1 3
-18 2 3
-18 3 3
-18 4 3
-18 5 3
-18 6 3
-19 0 3
-19 1 3
-19 2 3
-19 3 3
-19 4 3
-19 5 3
-19 6 3
-20 0 3
-20 1 3
-20 2 3
-20 3 3
-20 4 3
-20 5 3
-20 6 3
-21 0 3
-21 1 3
-21 2 3
-21 3 3
-21 4 3
-21 5 3
-21 6 3
-20 7 3
-21 7 3
-20 8 3
-21 8 3
-20 9 3
-21 9 3
-20 10 3
-21 10 3
-20 11 3
-21 11 3
-20 12 3
-21 12 3
-22 0 3
-22 1 3
-22 2 3
-22 3 3
-22 4 3
-22 5 3
-22 6 3
-22 7 3
-22 8 3
-22 9 3
-22 10 3
-22 11 3
-22 12 3
-23 0 3
-23 1 3
-23 2 3
-23 3 3
-23 4 3
-23 5 3
-23 6 3
-23 7 3
-23 8 3
-23 9 3
-23 10 3
-23 11 3
-23 12 3
-24 0 3
-24 1 3
-24 2 3
-24 3 3
-24 4 3
-24 5 3
-24 6 3
-24 7 3
-24 8 3
-24 9 3
-24 10 3
-24 11 3
-24 12 3
-25 0 3
-25 1 3
-25 2 3
-25 3 3
-25 4 3
-25 5 3
-25 6 3
-25 7 3
-25 8 3
-25 9 3
-25 10 3
-25 11 3
-25 12 3
-26 0 3
-26 1 3
-26 2 3
-26 3 3
-26 4 3
-26 5 3
-26 6 3
-26 7 3
-26 8 3
-26 9 3
-26 10 3
-26 11 3
-26 12 3
-27 6 3
-27 7 3
-27 8 3
-27 9 3
-27 10 3
-27 11 3
-27 12 3
-28 6 3
-28 7 3
-28 8 3
-28 9 3
-28 10 3
-28 11 3
-28 12 3
-29 6 3
-29 7 3
-29 8 3
-29 9 3
-29 10 3
-29 11 3
-29 12 3
-30 6 3
-30 7 3
-30 8 3
-30 9 3
-30 10 3
-30 11 3
-30 12 3
-31 6 3
-31 7 3
-31 8 3
-31 9 3
-31 10 3
-31 11 3
-31 12 3
-32 6 3
-32 7 3
-32 8 3
-32 9 3
-32 10 3
-32 11 3
-32 12 3
-33 6 3
-33 7 3
-33 8 3
-33 9 3
-33 10 3
-33 11 3
-33 12 3
-34 6 3
-34 7 3
-34 8 3
-34 9 3
-34 10 3
-34 11 3
-34 12 3
-35 6 3
-35 7 3
-35 8 3
-35 9 3
-35 10 3
-35 11 3
-35 12 3
-36 6 3
-36 7 3
-36 8 3
-36 9 3
-36 10 3
-36 11 3
-36 12 3
-37 6 3
[...]
CELL_DATA 47312

SCALARS CGUP DOUBLE
LOOKUP_TABLE default
2717970.607320
8289424.652152
162497.153081
125391.737041
71985.502292
2682135.174570
71771.384985
3904530.476516
1683661.378392
159924.060424
3148617.200572
207503.842302
101791.033475
2687278.704982
1467802.537015
115551.736104
275847.533148
138751.406506
183296.837753
211746.345377
294135.680830
3315901.423038
289183.711640
184053.346490
856777.956594
4458547.956229
841114.514325
3150351.354384
9324789.023032
1799612.113075
8012725.462088
2189419.247654
7611603.922358
1474758.197620
5178831.472233
194803.027555
212902.536942
242328.068080
2541815.398499
289106.785557
1856176.524274
4241793.661630
10645101.821404
311188.950670
2719538.963889
405464.205764
12096026.097649
153787.246142
159718.508136
291274.161985
1001729.468370
180916.180441
1554995.392210
168739.413359
157827.111053
157218.380290
162490.832149
147782.673790
154536.576517
141655.891981
254938.062389
10702681.311628
8246348.245453
197668.121468
4770372.570001
171693.588903
4744877.407432
11445401.715603
2208781.091267
159384.699133
143346.590758
130646.618108
3617608.734082
2015681.776747
5007633.375838
191655.610099
836927.769524
260201.573446
179084.378847
129526.344533
1541423.330102
10412537.489061
28005693.774613
10042923.557840
109355.378978
298727.963718
223816.329601
141825.954061
135516.073656
228107.953493
135854.697058
139119.779259
61443.101416
118521.361520
5315110.063870
3979630.671638
1688381.306753
234757.389005
4664879.620830
268543.387408
208698.904414
229022.715522
205210.973366
2606541.100766
1259498.458714
3799410.943453
3892079.412896
3203978.275625
283444.769945
16445585.849286
243632.390570
225629.832432
3883376.630372
201543.716884
187248.942449
199879.978545
169979.453843
123275.473808
121135.887217
115323.154995
122901.124733
113508.124031
52288.603194
77763.469154
199402.835017
290031.081206
1665482.967294
166258.061973
116618.633871
119119.010911
147350.388183
213298.141059
119956.389447
2347213.660206
5140640.011108
4068927.683240
13903881.014672
63722.116144
103704.432470
1484700.212918
2327649.572504
1210292.315449
3868018.113817
166634.227635
3373077.227087
2106165.689249
215652.692514
150832.923316
1947230.052273
9119110.108310
2332029.352775
3341249.803666
1382139.128525
282160.006986
155218.223551
1287712.177394
172302.681181
2087120.551292
2975533.508703
4906052.075326
176813.490676
203646.091830
137622.948257
141690.208385
4644332.235123
11779283.720386
15586846.934381
145897.200318
1616287.892319
139450.675550
2815611.773402
3530698.640683
4481749.432274
230804.344973
172909.301250
155664.888195
152504.299964
142218.968149
138842.183735
236457.666229
763137.560559
912042.758733
157801.867332
4717288.727640
4084068.963194
177335.071312
156865.332094
2996298.453520
240098.665389
190287.580936
1198438.783367
34455433.499904
9511113.462837
200915.312105
171353.431153
148265.256384
1012796.918942
7636455.132632
8170177.656887
15618536.277339
925778.909286
7749956.727729
1285873.147441
6840083.811690
1648864.955011
503601.713121
1578347.706704
5212281.956437
190425.992392
20017706.824353
303148.047197
290025.015311
233328.530566
198695.232480
3681254.878926
223222.163171
160614.412848
182986.808508
6210280.705259
5395519.279686
10092389.444530
171608.318915
310740.519261
1873741.040358
855929.968451
1889005.763446
5205422.475289
180828.810073
483644.022334
330317.826603
148337.221783
151402.865286
158911.476575
144180.099197
147477.773622
24772869.828580
2093136.100041
2832724.869665
81970.938430
142347.793687
2355384.038771
144731.998468
33126582.912066
137756.999283
133270.458259
134192.981578
3612889.440895
1046323.265636
127694.083854
76587.121370
139824.588210
1430959.695649
10117977.454348
25146339.453037
6303559.487543
9772494.728231
3320138.920048
4828150.261607
249449.646819
483790.590884
3209385.843700
142094.862479
162639.907090
8299324.688870
160264.527299
132811.727704
8231837.630717
987973.138600
94293.004154
120616.591119
124878.038981
324975.041840
122125.130409
117250.437977
1817020.951554
195416.518244
263731.075585
62493.079177
3783364.024557
113556.198132
1570735.202252
132392.162660
127234.150845
110396.893169
131736.535782
163125.392891
269195.152710
1381116.815520
146811.188616
1646905.037156
4641169.824335
1549018.893032
153710.974142
119416.184888
110091.397496
115104.774249
117756.333164
115070.532866
13805975.729434
108950.583348
175099.470591
103035.652385
924845.540560
12547447.825526
25706273.845778
255341.611957
174631.349342
197008.191764
238306.272234
136480.308643
260381.525919
2122914.958597
319534.549973
173809.682029
114918.306231
114011.293795
80262.002063
1748677.400514
10655476.602463
4778738.611974
5362430.260348
400681.712135
1377959.550080
3538886.164047
1710078.579184
136781.599345
1955936.771050
5980409.422216
12894903.695070
3452060.658509
211267.848838
158858.337034
159864.761114
134620.898860
130070.918281
18193916.472277
1058579.822447
222511.341643
190050.399811
4610226.649364
926487.730557
2998120.450705
1079836.973458
232823.909414
172532.717159
119572.398778
90688.530088
95632.592915
110392.698159
5655827.231537
274989.865810
2022644.362667
175987.978418
108396.140142
4822891.916655
3332786.120487
95099.922498
114252.355398
212614.860646
147341.121815
196370.993260
293684.775663
98243.417094
106227.891520
11372920.928523
337943.169402
3121166.274305
121925.254055
109086.399349
112986.575684
548460.253685
113816.421117
111031.400833
4450587.256807
40473354.705088
1340344.037790
3307837.092106
212832.018634
2813520.667518
217031.619507
146485.813646
10036617.103727
137851.346510
3240817.486399
2987213.657821
198637.135010
173617.108891
8194458.208237
256402.183143
12099933.846724
158259.581347
1615497.151808
329320.796105
153187.622135
169896.719930
147028.049224
2173161.484388
8832994.483543
8251223.266073
90817.763372
107623.042854
870619.485775
154622.241072
115846.829353
3207205.363257
9976099.756393
124379.244382
344305.114834
1759979.014450
2303977.700451
3443061.921442
1769151.729442
9573890.076574
2927355.215093
135014.063841
5094154.661878
3031061.427686
158976.257277
3707421.993250
145954.760584
3634335.267588
233497.978838
25772127.256757
391464.131070
4739624.843421
148977.576480
253921.489907
127804.401961
125131.550316
122479.579341
172330.880463
251424.344612
90450.384623
114733.763321
7265158.576354
776502.569828
7458556.149314
229095.731627
116960.094302
1084101.198402
4714244.918935
31214728.928742
1715182.473099
1740557.840052
1427317.171708
3822196.130059
4581204.533240
9926011.285058
3418186.577558
6848398.703550
2041541.941292
7038536.952996
161320.743168
227371.046114
3286824.219860
1314229.410690
1217477.981344
1761877.249624
933169.735686
193964.527833
170496.723534
7218013.463625
200893.814533
100565.602085
5575042.862400
238315.644453
172655.078810
150036.210815
1184564.599339
22631611.247611
14636905.955382
185084.463375
136791.289731
191764.320265
4124374.498286
4027411.907257
165087.662024
3653486.590826
267000.452910
135234.201961
4523985.634698
1264324.280215
11292280.607490
231650.174192
3450360.937564
205047.266336
6211523.847478
128769.477191
5545833.028755
159947.939111
126011.770468
913082.879831
1353583.741364
329106.551956
237199.976428
151920.318370
173784.905954
119579.069551
3730657.116608
193985.533281
244192.687041
114788.476051
65946.886314
109573.169195
107581.604760
106828.679662
126975.178332
178002.680655
101149.817404
3329503.618363
180356.426618
111467.741414
112379.416520
113228.693117
112391.198386
1267684.148043
4042799.546951
151996.792351
120888.103390
114184.433013
198920.334043
2581373.423929
131306.296378
96990.904049
113925.681728
112889.262146
217723.879910
114727.605306
113981.129274
119255.163971
111827.830724
1127849.458529
148751.481022
138457.405292
136445.043135
109612.655134
93545.361841
894636.515549
229687.020387
1315243.744621
31974430.531635
49660035.009923
5447768.962200
4421977.700560
2056789.911534
2682052.602981
213361.202566
3044696.281122
156064.339439
6730726.154381
251002.070077
170304.585082
179218.838782
10947707.004852
149855.721326
168712.441439
164279.492084
150426.600753
27271292.565224
3721310.161305
890505.384774
232985.539243
14501220.400983
4556165.819831
935091.235842
229258.494453
6481169.786469
234960.462874
21932862.977145
4032729.445279
4842770.963473
8609747.109162
296304.598720
199328.411261
134727.685168
3364323.857122
1017437.140518
148728.985446
5469486.209655
1804908.620909
174876.830726
129139.992902
3787070.718103
395086.639108
330113.579402
3320392.841873
242317.144172
127182.664481
128465.675054
6975026.478240
101663.567974
140672.099094
867090.349458
1069114.548784
15129870.132454
4720017.515429
226567.896169
186886.063692
146055.505841
117235.901234
11246823.814941
167802.402735
8753058.641411
3895673.553693
1022346.248248
232209.065355
155924.557004
131414.345112
114054.727317
4604500.878427
333746.843590
114291.888851
9282589.204058
112689.392699
111785.534151
110257.954553
7292775.665588
1518495.316593
209677.057964
112242.118794
1891922.504038
20195758.487676
3857938.880192
1351638.161988
3318462.722258
1262369.452222
1675124.989187
3428162.763839
263340.452192
2840403.629665
227817.416280
4687154.051769
146311.711035
155426.342741
164531.043493
5828386.907724
2382941.740692
1903063.102269
456514.057249
169276.407939
195195.081128
9227119.298441
2695628.368357
162962.259408
182242.268784
174533.305621
12626773.031955
3438136.763288
172497.716037
5779782.430735
984253.464882
208208.073561
167088.746771
157146.124194
286601.678101
156133.029055
117636.520600
233231.275380
11666341.935642
6250821.984586
255129.267890
2777473.359773
279413.578726
6338687.481253
150549.505906
163031.271392
91276.965584
3507975.903317
6036463.295697
2623616.407329
7070279.605095
1102660.151599
166334.026775
307160.374172
129129.373894
854218.723883
9817938.935435
6908083.064787
128435.126646
219118.431258
134653.914169
137819.452583
91635.349339
126197.842519
113105.474435
5063027.600730
2658550.155774
2853182.177716
11292320.114932
3014425.545184
159487.478316
180905.779774
160674.747841
4610686.280736
134643.410529
1440707.616585
282403.781567
161853.351383
7513277.756747
205151.895751
5789969.828556
174933.057241
1478841.200133
1643972.927697
7436519.027564
258376.004731
160471.344666
1072996.122452
119955.067175
147191.246375
124053.395833
121216.923994
110060.992135
112259.089272
113758.004043
242552.973813
1090111.037681
272939.521878
262345.175491
148824.968601
189053.187878
4279348.427492
171668.878382
112508.782482
1214291.460708
1217213.039782
2294146.916726
620068.185376
113742.647842
111948.985973
104561.056352
3802042.066193
199746.862440
147016.003605
2833676.705955
240974.626107
167743.903854
1200136.843877
137035.676662
128692.522711
79682.582320
165306.855360
168968.219232
3946910.923424
85368.160312
2998237.729039
111537.179178
111523.183798
111845.521537
108735.840539
10090904.353612
143849.355387
5580306.714962
4054158.212381
196696.352479
159278.327883
155339.206697
4868267.726773
143553.736264
8836496.557967
1512222.721704
976469.671801
4276107.094061
131266.861171
108259.134424
3910334.079785
12267282.609181
2006261.409828
5012319.615624
214518.720642
139703.888300
6545455.415278
111909.128570
112759.229674
44893.064149
3129808.216911
842847.586197
27146759.454282
33202767.256897
1473617.412285
165445.274623
1529259.914132
118557.356615
4041452.994356
115348.501114
16945222.661299
204182.164484
232366.892146
111658.842226
295260.608858
158216.398037
124574.968278
157218.668735
1491201.352505
111544.632880
109257.106139
212138.726514
108327.562828
107597.278413
3472217.654691
1934782.468010
1239921.508860
1020704.416158
19446027.573037
2077933.987569
1867230.809599
5531614.643681
258818.406080
176624.561962
1547085.884982
163024.149931
221310.432871
157049.976407
131895.512398
111100.928287
121872.874930
140958.910192
159728.906515
4376013.877710
166094.868699
111518.807709
304683.775290
112199.148641
292989.516967
3632836.835072
153231.302863
193974.513835
180685.587225
121583.171166
1136223.497572
6309507.816555
10204340.763857
112280.301532
7071459.978661
1335424.647872
3361607.704631
3706524.423645
224841.123110
903976.480387
319272.881229
340740.040307
269609.129130
126413.298262
152560.407049
27352078.035861
130916.878630
313942.246678
164090.725788
13387896.454596
30826620.060159
117920.472022
128090.336878
3586069.092307
18710594.452182
128069.182254
4581589.153104
5721509.829049
254852.341500
120135.704351
156926.283371
3122681.062507
9937852.227295
157750.261948
18542392.081596
2354096.544100
216984.894918
208640.508664
144639.317812
5558110.644980
3762238.771651
1617265.021545
5976901.081430
1526728.902482
189903.924380
39195300.292800
155622.304150
128275.672035
116873.645407
146579.793597
1701689.146724
219967.277756
187332.431310
1039751.186130
383631.113966
308337.526528
4028768.821355
258332.955159
3174027.272335
162504.500200
211594.420906
1698638.352223
1379021.494612
5653277.001383
181064.842475
309886.261941
133645.698960
184791.537547
110384.982862
847747.194806
19935316.463802
5500692.421580
138743.777729
128085.554782
113861.582708
2437286.729594
157888.058545
112406.384443
4736486.145394
113188.488432
3150741.852169
5336089.471152
5868803.009121
267580.065108
178272.900461
177838.444213
4195821.305380
4536685.525067
452740.329680
68522.250317
122677.606525
145929.283947
5693172.248115
862406.922480
2697796.851983
4419480.801282
357944.377094
274964.236493
227411.149950
171797.743740
5559156.320816
113426.697109
136837.297138
89969.213706
118026.205147
122808.992487
239282.011599
3541097.855337
312887.104636
150743.254294
119798.493477
379477.608112
112150.485660
103574.599377
5017217.252733
112108.784368
111772.231519
111538.858688
147260.659213
277776.614696
219664.868316
11086469.502487
34827507.196790
1989222.805440
2708509.013249
4146609.124377
1427386.133969
270268.614254
223987.355451
5279743.003916
116633.014607
125142.517067
244917.225643
3496375.999805
256669.926773
123287.354691
285886.153040
6095500.088848
165244.881792
233292.342303
2612111.499035
818199.812372
110446.692235
211107.104474
95746.531460
327268.639133
2188048.391390
1190211.493488
9265044.607564
867659.780023
1811903.600149
8373514.618814
9743473.853548
210347.434995
108462.435033
106436.699820
1416672.545998
148171.016483
109328.969233
3384570.769142
162393.000829
101087.473483
1390497.433929
3378859.523010
110508.713255
17186381.278624
829365.376461
232541.579791
111438.730914
1612834.430210
163069.020622
206859.392114
111838.934600
1660547.744883
113903.653036
113479.000288
2196308.442126
2356248.513383
4434925.098623
3094693.824098
864394.422778
861175.266197
1425516.575591
247287.096300
161772.984984
141731.477914
4937470.269115
2114017.341452
2224910.930383
12587430.361054
3249601.282483
259887.027266
1621305.800336
411252.672788
1950322.811478
13540281.375217
19476462.948860
3288186.216005
11986870.380151
6698634.187959
14205625.544343
10550073.396324
170533.548093
147841.791628
84254.087989
109961.372959
17098831.713117
155337.806924
302982.006798
3298850.993035
290973.720664
2325063.013312
4422688.008470
224225.695730
128471.623907
108903.168533
3365210.243423
311407.383155
113721.998476
3541126.006058
217960.601744
4806869.181107
1916239.886848
325675.887169
164069.064443
124624.468414
261298.162317
200576.587225
365503.050597
115772.233390
1597560.863502
197068.101531
7305125.148697
342397.827816
173324.483630
121005.919670
3525184.035120
3443448.660486
275783.505529
14857434.646292
2999778.088891
1352618.940426
722236.870572
5491634.391762
2003540.009371
744659.584953
3148293.126235
43730516.410323
1755083.820452
300246.175996
15662428.998077
181734.756992
191476.832483
157015.505396
127038.756533
2493700.722428
11467016.657508
166401.623515
3710056.253769
331505.456871
1876465.418695
2991682.134379
208260.680467
173167.349724
27046398.855783
15811069.843603
144977.770753
3393657.864884
10076121.030588
121678.583019
1540674.711182
2671137.702560
147780.274519
112159.833220
82369.554080
114120.082700
111477.891158
3616431.470978
2814225.310772
329592.941203
4639456.963028
533625.857878
3357933.555762
373281.203691
251148.020358
11761707.793171
185993.995519
229733.782467
158039.529779
3871353.540666
175475.925832
2198000.349695
17960975.049961
200081.861781
170276.739582
939190.971377
190408.989149
4326217.640314
171311.039436
158218.529960
129257.591070
102701.468293
223134.707617
99486.379069
127864.734383
192481.900740
115124.707680
116041.058117
267774.788675
2753709.809755
180460.298400
5540782.688017
1864067.148977
3293612.127724
296586.307649
178247.275124
2466365.027843
106324.618629
891074.556042
128309.706299
122097.827110
1887710.572550
119376.208492
283814.377137
116477.501390
2346331.845403
2857577.040141
3241039.805044
2070334.645015
130738.332182
134591.730803
113713.359203
1037271.607791
4199671.090019
19302703.780177
247769.697074
7931054.163301
3527270.080832
9470469.154820
406753.765796
121840.102174
25614705.120611
5183660.464058
2043515.046034
4909644.239206
1420431.966163
110194.600140
113253.420113
1776333.389463
112261.803872
135051.928973
111528.912269
1341049.623421
151837.604117
733598.818842
142565.770912
112886.238756
3094215.105104
6226174.727494
262778.657967
120281.382031
460660.830796
176916.383515
2533429.729202
1176048.764712
173781.185591
143318.455895
6205510.061295
145649.695949
131669.295444
100890.208699
3614558.181401
5183679.394979
27043711.909033
190983.475516
4145745.473433
207168.449590
187236.336468
199351.358897
4452267.855764
157223.388588
123697.916585
111356.995536
111746.215664
187719.140245
112403.855217
214968.672518
111162.462529
3644888.505910
2044646.741720
244962.731178
150372.598799
157983.409936
1829165.188809
1535967.120572
4656365.607534
181024.403185
151313.599805
110698.098886
106426.389431
109823.921772
159505.632945
126273.978642
342930.783891
192920.338333
3745563.068384
240643.075984
15158826.107549
2147118.508037
160537.311036
1918259.525138
5610344.866350
3113742.790467
144151.950399
132527.750312
1998593.776054
1429807.225929
2458089.809678
392400.277707
6012480.066834
3444533.457039
1041959.327268
521855.824818
1071189.387223
204795.402279
1997569.255119
37086789.801729
8211987.680809
3656507.071858
420964.133041
162086.488379
234736.214093
6567638.673100
143745.670856
119005.847723
193823.627744
2849033.825671
143641.974001
316893.369828
234441.864450
176763.861915
134249.617045
144886.648077
232255.595212
138539.420655
139396.839476
205651.828614
14304918.821799
216816.416406
16948346.544791
123704.152138
120844.296539
119855.361344
126398.972535
116279.663389
4338037.727055
51267.904798
96321.897464
3846674.079560
12484681.917566
111396.708340
111701.739529
113122.887742
26113500.794171
5789788.925712
113398.594715
10364331.358875
11733773.523699
1645985.983853
272759.655502
129623.212155
265617.301640
6882210.891541
386195.656721
149278.545666
121302.739407
113486.904438
113463.531884
1634627.190987
1266846.803575
206243.121153
17604459.715984
111879.916880
2408648.954450
11633820.033063
43075071.821819
113332.179212
889489.089052
1334372.798378
10449062.209153
233170.798438
152116440.705687
4346882.031514
41486597.856396
3217935.863118
10642905.248920
250903.739286
294082.511080
273326.883878
6017377.639876
196903.643080
178261.374374
232983.709035
3350580.775851
14663485.655718
15495112.021537
1062797.084862
7177202.941866
1824174.094712
7686541.180338
1777013.149428
1420603.267481
3633562.996827
3914997.323274
1395291.348969
1120150.338248
884292.527515
11849629.729727
1492336.591797
1672532.393220
3737481.931886
3244723.705583
401597.742617
369562.396506
160232.832035
3176316.900429
208199.053071
5030655.175083
120900.893725
7137888.221443
2705138.624760
2626061.322416
8183832.543004
212658.221669
156716.493060
7304901.129197
5398601.122233
2632935.355332
2478352.991325
2178905.347984
12499852.311144
956643.342952
273394.324556
2920293.848440
9351685.854849
145872.488416
2672784.931165
179738.139510